H<sub>2</sub>O
EXTERNAL
END
1 4
0 0 3 1.0 1.0
34.061341000      0.00602519780
5.1235746000      0.04502109400
1.1646626000      0.20189726000
0 0 1 0.0 1.0
0.5157455100      1.00000000000
0 0 1 0.0 1.0
0.1795111000      1.00000000000
0 2 1 0.0 1.0
0.5000000000      1.00000000000
8 8
0 0 6 2.0 1.0
27032.382631      0.00021726302465
4052.3871392      0.00168386621990
922.32722710      0.00873956162650
261.24070989      0.03523996880800
85.354641351      0.11153519115000
31.035035245      0.25588953961000
0 0 2 2.0 1.0
12.260860728      0.39768730901000
4.9987076005      0.24627849430000
0 0 1 0.0 1.0
1.0987136000      1.00000000000000
0 0 1 0.0 1.0
0.3565870100      1.00000000000000
0 2 4 4.0 1.0
63.274954801      0.0060685103418
14.627049379      0.0419125758240
4.4501223456      0.1615384108800
1.5275799647      0.3570695131100
0 2 1 0.0 1.0
0.5489735000      1.0000000000000
0 2 1 0.0 1.0
0.1858671100      1.0000000000000
0 3 1 0.0 1.0
0.4534621300      1.0000000000000
99 0
END
DFT
CORRELAT
PBE
EXCHANGE
PBE
END
SHRINK
6 6
TOLDEE
7
PPAN
END
 PROCESS            3  OF            8  WORKING
 PROCESS            4  OF            8  WORKING
 PROCESS            7  OF            8  WORKING
 PROCESS            5  OF            8  WORKING
 PROCESS            0  OF            8  WORKING
 PROCESS            2  OF            8  WORKING
 PROCESS            1  OF            8  WORKING


 *******************************************************************************
 *                                                                             *
 *                               CRYSTAL17                                     *
 *                      public : 1.0.2 - March 1st, 2018                       *
 *                       HTTP://WWW.CRYSTAL.UNITO.IT                           *
 *                                                                             *
 *                              MAIN AUTHORS                                   *
 *                                                                             *
 *  R. DOVESI(1,11), V.R. SAUNDERS(2), C. ROETTI(1,11), R. ORLANDO(1,11),      *
 *  C.M. ZICOVICH-WILSON(1,3), F. PASCALE(4), B. CIVALLERI(1,11),              *
 *  K. DOLL(5), N.M. HARRISON(2,6), I.J. BUSH(7), Ph. D'ARCO(8),               *
 *  M. LLUNELL(9), M. CAUSA'(10), Y. NOEL(8), L. MASCHIO(1,11), A. ERBA(1,11)  *
 *  M. RE'RAT(14), S. CASASSA(1,11)                                            *
 *                                                                             *
 *        CONTRIBUTIONS TO THE CODE HAVE ALSO BEEN GIVEN BY                    *
 *                                                                             *
 *  M. FERRABONE(1,11), M. DE LA PIERRE(1,11), M. FERRERO(1,11),               *
 *  J. BAIMA(1,11), E. ALBANESE(1,11), M.F. PEINTINGER(12), R. BAST(13),       *
 *  B. KIRTMAN(15), V. LACIVITA(1,11), R. DEMICHELIS(1,16)                     *
 *  G. BRANDEBURG(17), S. SALUSTRO(1,11), G. SANSONE(1,11)                     *
 *  M.T. RUGGIERO(18)                                                          *
 *                                                                             *
 * (1) THEORETICAL CHEMISTRY GROUP - UNIVERSITA' DI TORINO - TORINO (ITALY)    *
 * (2) COMPUTATIONAL SCIENCE & ENGINEERING DEPARTMENT - STFC DARESBURY (UK)    *
 * (3) UNIVERSIDAD AUTONOMA DEL ESTADO DE MORELOS - CUERNAVACA (MEXICO)        *
 * (4) UNIVERSITE' DE LORRAINE - NANCY (FRANCE)                                *
 * (5) UNIVERSITAET STUTTGART- STUTTGART (GERMANY)                             *
 * (6) IMPERIAL COLLEGE - LONDON (UK)                                          *
 * (7) OXFORD E-RESEARCH CENTRE - OXFORD (UK)                                  *
 * (8) UPMC - SORBONNE UNIVERSITES - PARIS (FRANCE)                            *
 * (9) UNIVERSIDAD DE BARCELONA - BARCELONA (SPAIN)                            *
 *(10) UNIVERSITA' DI NAPOLI "FEDERICO II" - NAPOLI (ITALY)                    *
 *(11) NIS - NANOSTRUCTURED INTERFACES AND SURFACES - TORINO (ITALY)           *
 *(12) MPI FUER CHEMISCHE ENERGIEKONVERSION - MUELHEIM AN DER RUHR (GERMANY)   *
 *(13) UNIVERSITY OF TROMSO - TROMSO (NORWAY)                                  *
 *(14) UNIVERSITE' DE PAU ET DES PAYS DE L'ADOUR - PAU (FRANCE)                *
 *(15) UNIVERSITY OF CALIFORNIA SANTA BARBARA - SANTA BARBARA (USA)            *
 *(16) CURTIN UNIVERSITY - PERTH (AUSTRALIA)                                   *
 *(17) UNIVERSITY COLLEGE LONDON - LONDON (UK)                                 *
 *(18) CAMBRIDGE UNIVERSITY - CAMBRIDGE (UK)                                   *
 *                                                                             *
 *******************************************************************************
 EEEEEEEEEE STARTING  DATE 13 02 2024 TIME 06:26:54.9
 PROCESS            6  OF            8  WORKING
 H<sub>2</sub>O

 GEOMETRY INPUT FROM EXTERNAL FILE (FORTRAN UNIT 34)
 3D - CRYSTAL

 *******************************************************************************
 LATTICE PARAMETERS  (ANGSTROMS AND DEGREES) - PRIMITIVE CELL
       A          B          C        ALPHA      BETA     GAMMA        VOLUME
    2.80101    3.40336   21.39662    90.00000  90.00000  90.35251    203.967106
 INFORMATION **** CHKGRP **** SPGR WITH NO INVERSION

 NUMBER OF IRREDUCIBLE ATOMS IN THE CELL:    6

 CARTESIAN COORDINATES (ANGSTROM) - IRREDUCIBLE ATOMS AND SYMMETRY RELATED

 AT.IRR.  AT  AT.N.          X                   Y                   Z
     1     1     1    2.236481708000E+00  5.311757550000E-02  8.753482203000E+00
     2     2     1    1.438658928000E+00  3.467620820000E-01  1.515010540000E+01
     3     3     1    1.367855723000E+00  2.460058788000E+00  9.692559880000E+00
     4     4     1    5.419812856000E-01  1.093835087000E+00  1.091191706000E+01
     5     5     8    1.481928440000E+00  1.304213860000E+00  1.067156922000E+01
     6     6     8    1.283788824000E+00  3.250250521000E+00  9.010235476000E+00
 NUMBER OF SYMMETRY OPERATORS         :    1
 *******************************************************************************
 LATTICE PARAMETERS (ANGSTROMS AND DEGREES) - BOHR = 0.5291772083 ANGSTROM
 PRIMITIVE CELL - CENTRING CODE 1/0 VOLUME=   203.967106 - DENSITY  0.293 g/cm^3
         A              B              C           ALPHA      BETA       GAMMA
     2.80101403     3.40335955    21.39662315    90.000000  90.000000  90.352511
 *******************************************************************************
 ATOMS IN THE ASYMMETRIC UNIT    6 - ATOMS IN THE UNIT CELL:    6
     ATOM                 X/A                 Y/B                 Z/C
 *******************************************************************************
      1 T   1 H    -2.014290201304E-01  1.560769000223E-02  4.091057799931E-01
      2 T   1 H    -4.856175701204E-01  1.018901000175E-01 -2.919394198893E-01
      3 T   1 H     4.937466802196E-01 -2.771538499462E-01  4.529948399825E-01
      4 T   1 H     1.958973300446E-01  3.214047100372E-01 -4.900168599735E-01
      5 T   8 O    -4.680666799137E-01  3.832209100638E-01  4.987501600223E-01
      6 T   8 O     4.654693500539E-01 -4.496954004699E-02  4.211054900035E-01

 T = ATOM BELONGING TO THE ASYMMETRIC UNIT
 *******************************************************************************
 * GEOMETRY EDITING - INPUT COORDINATES ARE GIVEN IN ANGSTROM
 *******************************************************************************

 GCALCO - MAX INDICES DIRECT LATTICE VECTOR    30    25     3
 NO.OF VECTORS CREATED 6999 STARS 2153 RMAX   131.75950 BOHR

 GEOMETRY FOR WAVE FUNCTION - DIMENSIONALITY OF THE SYSTEM    3
 (NON PERIODIC DIRECTION: LATTICE PARAMETER FORMALLY SET TO 500)
 *******************************************************************************
 LATTICE PARAMETERS (ANGSTROMS AND DEGREES) - BOHR = 0.5291772083 ANGSTROM
 PRIMITIVE CELL - CENTRING CODE 1/0 VOLUME=   203.967106 - DENSITY  0.293 g/cm^3
         A              B              C           ALPHA      BETA       GAMMA
     2.80101403     3.40335955    21.39662315    90.000000  90.000000  90.352511
 *******************************************************************************
 ATOMS IN THE ASYMMETRIC UNIT    6 - ATOMS IN THE UNIT CELL:    6
     ATOM                 X/A                 Y/B                 Z/C
 *******************************************************************************
      1 T   1 H    -2.014290201304E-01  1.560769000223E-02  4.091057799931E-01
      2 T   1 H    -4.856175701204E-01  1.018901000175E-01 -2.919394198893E-01
      3 T   1 H     4.937466802196E-01 -2.771538499462E-01  4.529948399825E-01
      4 T   1 H     1.958973300446E-01  3.214047100372E-01 -4.900168599735E-01
      5 T   8 O    -4.680666799137E-01  3.832209100638E-01  4.987501600223E-01
      6 T   8 O     4.654693500539E-01 -4.496954004698E-02  4.211054900035E-01

 T = ATOM BELONGING TO THE ASYMMETRIC UNIT

 ****    1 SYMMOPS - TRANSLATORS IN FRACTIONAL UNITS
 **** MATRICES AND TRANSLATORS IN THE CRYSTALLOGRAPHIC REFERENCE FRAME
   V INV                    ROTATION MATRICES                   TRANSLATORS
   1   1  1.00  0.00  0.00  0.00  1.00  0.00  0.00  0.00  1.00  0.00  0.00  0.00

 DIRECT LATTICE VECTORS CARTESIAN COMPONENTS (ANGSTROM)
          X                    Y                    Z
   0.280101402800E+01   0.000000000000E+00   0.000000000000E+00
  -0.209389710000E-01   0.340329513800E+01   0.000000000000E+00
   0.000000000000E+00   0.000000000000E+00   0.213966231500E+02


 CARTESIAN COORDINATES - PRIMITIVE CELL
 *******************************************************************************
 *      ATOM          X(ANGSTROM)         Y(ANGSTROM)         Z(ANGSTROM)
 *******************************************************************************
    1     1 H     2.236481708000E+00  5.311757550000E-02  8.753482203000E+00
    2     1 H     1.438658928000E+00  3.467620820000E-01  1.515010540000E+01
    3     1 H     1.367855723000E+00  2.460058788000E+00  9.692559880000E+00
    4     1 H     5.419812856000E-01  1.093835087000E+00  1.091191706000E+01
    5     8 O     1.481928440000E+00  1.304213860000E+00  1.067156922000E+01
    6     8 O     1.283788824000E+00  3.250250521000E+00  9.010235476000E+00

 *******************************************************************************
 LOCAL ATOMIC FUNCTIONS BASIS SET
 *******************************************************************************
   ATOM   X(AU)   Y(AU)   Z(AU)  N. TYPE  EXPONENT  S COEF   P COEF   D/F/G COEF
 *******************************************************************************
   1 H    4.226   0.100  16.542
                                  1 S
                                         3.406E+01 6.025E-03 0.000E+00 0.000E+00
                                         5.124E+00 4.502E-02 0.000E+00 0.000E+00
                                         1.165E+00 2.019E-01 0.000E+00 0.000E+00
                                  2 S
                                         5.157E-01 1.000E+00 0.000E+00 0.000E+00
                                  3 S
                                         1.795E-01 1.000E+00 0.000E+00 0.000E+00
                           4-     6 P
                                         5.000E-01 0.000E+00 1.000E+00 0.000E+00
   2 H    2.719   0.655  28.630
   3 H    2.585   4.649  18.316
   4 H    1.024   2.067  20.621
   5 O    2.800   2.465  20.166
                                 25 S
                                         2.703E+04 2.173E-04 0.000E+00 0.000E+00
                                         4.052E+03 1.684E-03 0.000E+00 0.000E+00
                                         9.223E+02 8.740E-03 0.000E+00 0.000E+00
                                         2.612E+02 3.524E-02 0.000E+00 0.000E+00
                                         8.535E+01 1.115E-01 0.000E+00 0.000E+00
                                         3.104E+01 2.559E-01 0.000E+00 0.000E+00
                                 26 S
                                         1.226E+01 3.977E-01 0.000E+00 0.000E+00
                                         4.999E+00 2.463E-01 0.000E+00 0.000E+00
                                 27 S
                                         1.099E+00 1.000E+00 0.000E+00 0.000E+00
                                 28 S
                                         3.566E-01 1.000E+00 0.000E+00 0.000E+00
                          29-    31 P
                                         6.327E+01 0.000E+00 6.069E-03 0.000E+00
                                         1.463E+01 0.000E+00 4.191E-02 0.000E+00
                                         4.450E+00 0.000E+00 1.615E-01 0.000E+00
                                         1.528E+00 0.000E+00 3.571E-01 0.000E+00
                          32-    34 P
                                         5.490E-01 0.000E+00 1.000E+00 0.000E+00
                          35-    37 P
                                         1.859E-01 0.000E+00 1.000E+00 0.000E+00
                          38-    42 D
                                         4.535E-01 0.000E+00 0.000E+00 1.000E+00
   6 O    2.426   6.142  17.027
 INFORMATION **** SET_MPP **** PCRYSTAL CALCULATION
 INFORMATION **** READM2 **** NEW DEFAULT: FOCK/KS MATRIX MIXING SET TO 30 %
 INFORMATION **** READM2 **** NEW DEFAULT: FULL DIRECT SCF MODE
 INFORMATION **** READM2 **** NEW DEFAULT: COULOMB BIPOLAR BUFFER SET TO 32 Mb
 INFORMATION **** READM2 **** NEW DEFAULT: EXCHANGE BIPOLAR BUFFER SET TO 32 Mb

 *******************************************************************************
 NEW DEFAULT: DFT INTEGRATION GRID INCREASED TO XLGRID
 NEW DEFAULT: DIIS ACCELERATOR ACTIVE
 USE KEYWORD NODIIS TO TURN IT OFF
 *******************************************************************************

 INFORMATION **** TOLDEE **** SCF TOL ON TOTAL ENERGY SET TO           7
 INFORMATION **** PPAN ****  MULLIKEN POPULATION ANALYSIS AT THE END OF SCF
 *******************************************************************************
 N. OF ATOMS PER CELL         6  COULOMB OVERLAP TOL         (T1) 10**   -6
 NUMBER OF SHELLS            32  COULOMB PENETRATION TOL     (T2) 10**   -6
 NUMBER OF AO                60  EXCHANGE OVERLAP TOL        (T3) 10**   20
 N. OF ELECTRONS PER CELL    20  EXCHANGE PSEUDO OVP (F(G))  (T4) 10**   20
 CORE ELECTRONS PER CELL      4  EXCHANGE PSEUDO OVP (P(G))  (T5) 10**   20
 N. OF SYMMETRY OPERATORS     1  POLE ORDER IN MONO ZONE                  4
 *******************************************************************************
 TYPE OF CALCULATION :  RESTRICTED CLOSED SHELL
 KOHN-SHAM HAMILTONIAN

 (EXCHANGE)[CORRELATION] FUNCTIONAL:(PERDEW-BURKE-ERNZERHOF)[PERDEW-BURKE-ERNZERHOF]


 CAPPA:IS1  6;IS2  6;IS3  6; K PTS MONK NET 112; SYMMOPS:K SPACE   2;G SPACE   1

 *******************************************************************************
 MAX NUMBER OF SCF CYCLES      50  CONVERGENCE ON DELTAP        10**-17
 WEIGHT OF F(I) IN F(I+1)      30% CONVERGENCE ON ENERGY        10**- 7
 SHRINK. FACT.(MONKH.)    6  6  6  NUMBER OF K POINTS IN THE IBZ    112
 SHRINKING FACTOR(GILAT NET)    6  NUMBER OF K POINTS(GILAT NET)    112
 *******************************************************************************
 *** K POINTS COORDINATES (OBLIQUE COORDINATES IN UNITS OF IS =  6)
   1-R(  0  0  0)   2-C(  1  0  0)   3-C(  2  0  0)   4-R(  3  0  0)
   5-C(  0  1  0)   6-C(  1  1  0)   7-C(  2  1  0)   8-C(  3  1  0)
   9-C(  4  1  0)  10-C(  5  1  0)  11-C(  0  2  0)  12-C(  1  2  0)
  13-C(  2  2  0)  14-C(  3  2  0)  15-C(  4  2  0)  16-C(  5  2  0)
  17-R(  0  3  0)  18-C(  1  3  0)  19-C(  2  3  0)  20-R(  3  3  0)
  21-C(  0  0  1)  22-C(  1  0  1)  23-C(  2  0  1)  24-C(  3  0  1)
  25-C(  4  0  1)  26-C(  5  0  1)  27-C(  0  1  1)  28-C(  1  1  1)
  29-C(  2  1  1)  30-C(  3  1  1)  31-C(  4  1  1)  32-C(  5  1  1)
  33-C(  0  2  1)  34-C(  1  2  1)  35-C(  2  2  1)  36-C(  3  2  1)
  37-C(  4  2  1)  38-C(  5  2  1)  39-C(  0  3  1)  40-C(  1  3  1)
  41-C(  2  3  1)  42-C(  3  3  1)  43-C(  4  3  1)  44-C(  5  3  1)
  45-C(  0  4  1)  46-C(  1  4  1)  47-C(  2  4  1)  48-C(  3  4  1)
  49-C(  4  4  1)  50-C(  5  4  1)  51-C(  0  5  1)  52-C(  1  5  1)
  53-C(  2  5  1)  54-C(  3  5  1)  55-C(  4  5  1)  56-C(  5  5  1)
  57-C(  0  0  2)  58-C(  1  0  2)  59-C(  2  0  2)  60-C(  3  0  2)
  61-C(  4  0  2)  62-C(  5  0  2)  63-C(  0  1  2)  64-C(  1  1  2)
  65-C(  2  1  2)  66-C(  3  1  2)  67-C(  4  1  2)  68-C(  5  1  2)
  69-C(  0  2  2)  70-C(  1  2  2)  71-C(  2  2  2)  72-C(  3  2  2)
  73-C(  4  2  2)  74-C(  5  2  2)  75-C(  0  3  2)  76-C(  1  3  2)
  77-C(  2  3  2)  78-C(  3  3  2)  79-C(  4  3  2)  80-C(  5  3  2)
  81-C(  0  4  2)  82-C(  1  4  2)  83-C(  2  4  2)  84-C(  3  4  2)
  85-C(  4  4  2)  86-C(  5  4  2)  87-C(  0  5  2)  88-C(  1  5  2)
  89-C(  2  5  2)  90-C(  3  5  2)  91-C(  4  5  2)  92-C(  5  5  2)
  93-R(  0  0  3)  94-C(  1  0  3)  95-C(  2  0  3)  96-R(  3  0  3)
  97-C(  0  1  3)  98-C(  1  1  3)  99-C(  2  1  3) 100-C(  3  1  3)
 101-C(  4  1  3) 102-C(  5  1  3) 103-C(  0  2  3) 104-C(  1  2  3)
 105-C(  2  2  3) 106-C(  3  2  3) 107-C(  4  2  3) 108-C(  5  2  3)
 109-R(  0  3  3) 110-C(  1  3  3) 111-C(  2  3  3) 112-R(  3  3  3)

 DIRECT LATTICE VECTORS COMPON. (A.U.)     RECIP. LATTICE VECTORS COMPON. (A.U.)
        X            Y            Z              X            Y            Z
    5.2931494    0.0000000    0.0000000      1.1870410    0.0073033    0.0000000
   -0.0395689    6.4312958    0.0000000      0.0000000    0.9769704    0.0000000
    0.0000000    0.0000000   40.4337579      0.0000000    0.0000000    0.1553945

 DISK SPACE FOR EIGENVECTORS (FTN 10)      777600 REALS

 SYMMETRY ADAPTION OF THE BLOCH FUNCTIONS DISABLED
 TTTTTTTTTTTTTTTTTTTTTTTTTTTTTT gordsh1     TELAPSE        0.28 TCPU        0.05

 MATRIX SIZE: P(G)   15352, F(G)    7832, P(G) IRR    8094, F(G) IRR    8094
 MAX G-VECTOR INDEX FOR 1- AND 2-ELECTRON INTEGRALS  27

 TTTTTTTTTTTTTTTTTTTTTTTTTTTTTT INPUT       TELAPSE        0.28 TCPU        0.05

 NEIGHBORS OF THE NON-EQUIVALENT ATOMS

 N = NUMBER OF NEIGHBORS AT DISTANCE R
    ATOM  N     R/ANG      R/AU   NEIGHBORS (ATOM LABELS AND CELL INDICES)
   1 H    1     0.9882     1.8675    6 O    0-1 0
   1 H    1     1.6103     3.0431    3 H    0-1 0
   1 H    1     1.8980     3.5868    6 O    1-1 0
   1 H    1     2.3854     4.5077    3 H    1-1 0
   1 H    1     2.4112     4.5564    5 O    0 0 0
   1 H    1     2.6394     4.9877    4 H    1 0 0

   2 H    2     2.8010     5.2931    2 H   -1 0 0    2 H    1 0 0
   2 H    2     3.4034     6.4314    2 H    0-1 0    2 H    0 1 0
   2 H    2     4.3945     8.3043    2 H   -1-1 0    2 H    1 1 0
   2 H    1     4.3960     8.3071    4 H    0 0 0
   2 H    2     4.4211     8.3546    2 H   -1 1 0    2 H    1-1 0
   2 H    1     4.5799     8.6548    5 O    0 0 0

   3 H    1     1.0474     1.9793    6 O    0 0 0
   3 H    1     1.5190     2.8705    5 O    0 0 0
   3 H    1     1.6103     3.0431    1 H    0 1 0
   3 H    1     2.0088     3.7962    4 H    0 0 0
   3 H    1     2.3854     4.5077    1 H   -1 1 0
   3 H    1     2.4532     4.6359    5 O    0 1 0

   4 H    1     0.9927     1.8760    5 O    0 0 0
   4 H    1     1.8883     3.5683    5 O   -1 0 0
   4 H    1     2.0088     3.7962    3 H    0 0 0
   4 H    1     2.3985     4.5325    6 O    0-1 0
   4 H    1     2.5206     4.7633    3 H    0-1 0
   4 H    1     2.6394     4.9877    1 H   -1 0 0

   5 O    1     0.9927     1.8760    4 H    0 0 0
   5 O    1     1.5190     2.8705    3 H    0 0 0
   5 O    1     1.8883     3.5683    4 H    1 0 0
   5 O    1     2.2170     4.1895    6 O    0-1 0
   5 O    1     2.4112     4.5564    1 H    0 0 0
   5 O    1     2.4532     4.6359    3 H    0-1 0

   6 O    1     0.9882     1.8675    1 H    0 1 0
   6 O    1     1.0474     1.9793    3 H    0 0 0
   6 O    1     1.8980     3.5868    1 H   -1 1 0
   6 O    1     2.2170     4.1895    5 O    0 1 0
   6 O    1     2.3985     4.5325    4 H    0 1 0
   6 O    1     2.5664     4.8498    5 O    0 0 0


 SYMMETRY ALLOWED INTERNAL DEGREE(S) OF FREEDOM:  15
 TTTTTTTTTTTTTTTTTTTTTTTTTTTTTT SYMM        TELAPSE        0.28 TCPU        0.05
 TTTTTTTTTTTTTTTTTTTTTTTTTTTTTT INT_SCREEN  TELAPSE        0.28 TCPU        0.05
 INFORMATION **** EXCBUF **** EXCH. BIPO BUFFER: WORDS USED =           0

 DFT PARAMETERS

     ATOM       ELECTRONS   NET CHARGE   R(ANGSTROM)
   1   1  H       1.0000      0.0000     1.11000000
   5   8  O       8.0000      0.0000     0.74000000

 SIZE OF GRID=     168343
 TTTTTTTTTTTTTTTTTTTTTTTTTTTTTT MAKE_GRID2  TELAPSE        1.29 TCPU        1.06
 BECKE WEIGHT FUNCTION
 RADSAFE =     2.00
 TOLERANCES - DENSITY:10**- 6; POTENTIAL:10**- 9; GRID WGT:10**-14

 RADIAL INTEGRATION  - INTERVALS (POINTS,UPPER LIMIT):            1( 75,  4.0*R)

 ANGULAR INTEGRATION - INTERVALS (ACCURACY LEVEL [N. POINTS] UPPER LIMIT):
  1(  4[  86]   0.2)  2(  8[ 194]   0.5)  3( 12[ 350]   0.9)  4( 16[ 974]   3.5)
  5( 12[ 350]9999.0)
 TTTTTTTTTTTTTTTTTTTTTTTTTTTTTT INT_CALC    TELAPSE        1.32 TCPU        1.09
 EEEEEEEEEE INT_CALC TERMINATION  DATE 13 02 2024 TIME 06:26:55.9

 *******************************************************************************
 H<sub>2</sub>O
 CRYSTAL - SCF - TYPE OF CALCULATION :  RESTRICTED CLOSED SHELL
 *******************************************************************************

 CAPPA:IS1  6;IS2  6;IS3  6; K PTS MONK NET 112; SYMMOPS:K SPACE   2;G SPACE   1

 TTTTTTTTTTTTTTTTTTTTTTTTTTTTTT SDIK        TELAPSE        1.52 TCPU        1.29

 AAAAAAAAAAAAAAAAAAAAAAAAAAAAAAAAAAAAAAAAAAAAAAAAAAAAAAAAAAAAAAAAAAAAAAAAAAAAAAA
         ATOMIC WAVEFUNCTION(S)


 NUCLEAR CHARGE  1.0  SYMMETRY SPECIES            S
 N. ELECTRONS    1.0  NUMBER OF PRIMITIVE GTOS    5
                      NUMBER OF CONTRACTED GTOS   3
                      NUMBER OF CLOSED SHELLS     0
                      OPEN SHELL OCCUPATION       1

  ZNUC SCFIT  TOTAL HF ENERGY   KINETIC ENERGY   VIRIAL THEOREM ACCURACY
   1.0   1   -4.976647874E-01  5.190806222E-01 -1.958742758E+00  5.7E-13

 NUCLEAR CHARGE  8.0  SYMMETRY SPECIES            S    P
 N. ELECTRONS    8.0  NUMBER OF PRIMITIVE GTOS   10    6
                      NUMBER OF CONTRACTED GTOS   4    3
                      NUMBER OF CLOSED SHELLS     2    0
                      OPEN SHELL OCCUPATION       0    4

  ZNUC SCFIT  TOTAL HF ENERGY   KINETIC ENERGY   VIRIAL THEOREM ACCURACY
   8.0  13   -7.480300557E+01  7.484348361E+01 -1.999459164E+00  4.9E-06

 AAAAAAAAAAAAAAAAAAAAAAAAAAAAAAAAAAAAAAAAAAAAAAAAAAAAAAAAAAAAAAAAAAAAAAAAAAAAAAA

 CHARGE NORMALIZATION FACTOR   1.00000000
 TOTAL ATOMIC CHARGES:
   1.0000000   1.0000000   1.0000000   1.0000000   8.0000000   8.0000000
 TTTTTTTTTTTTTTTTTTTTTTTTTTTTTT MOQGAD      TELAPSE        1.53 TCPU        1.29
 TTTTTTTTTTTTTTTTTTTTTTTTTTTTTT SHELLXN     TELAPSE        2.05 TCPU        1.82
 TTTTTTTTTTTTTTTTTTTTTTTTTTTTTT MONMO3      TELAPSE        2.25 TCPU        2.02
 NUMERICALLY INTEGRATED DENSITY     20.0000022663
 TTTTTTTTTTTTTTTTTTTTTTTTTTTTTT NUMDFT      TELAPSE        2.62 TCPU        2.38
 CYC   0 ETOT(AU) -1.525382447420E+02 DETOT -1.53E+02 tst  0.00E+00 PX  1.00E+00
 TTTTTTTTTTTTTTTTTTTTTTTTTTTTTT DIIS        TELAPSE        2.62 TCPU        2.38
 TTTTTTTTTTTTTTTTTTTTTTTTTTTTTT FDIK        TELAPSE        2.69 TCPU        2.46
 INSULATING STATE
 TOP OF VALENCE BANDS -    BAND     10; K   20; EIG -2.9678271E-01 AU
 TOP OF VALENCE BANDS -    BAND     10; K    1; EIG -3.1180513E-01 AU
 BOTTOM OF VIRTUAL BANDS - BAND     11; K   21; EIG -2.5118753E-01 AU
 INDIRECT ENERGY BAND GAP:   1.2407 eV
 BOTTOM OF VIRTUAL BANDS - BAND     11; K    1; EIG -2.5118753E-01 AU
 TTTTTTTTTTTTTTTTTTTTTTTTTTTTTT PDIG        TELAPSE        2.70 TCPU        2.46
 CHARGE NORMALIZATION FACTOR   1.00000000
 TOTAL ATOMIC CHARGES:
   0.5368808   0.0000802   0.6104349   0.5627744   9.2924217   8.9974080
 TTTTTTTTTTTTTTTTTTTTTTTTTTTTTT MOQGAD      TELAPSE        2.70 TCPU        2.47
 TTTTTTTTTTTTTTTTTTTTTTTTTTTTTT SHELLXN     TELAPSE        3.32 TCPU        3.08
 TTTTTTTTTTTTTTTTTTTTTTTTTTTTTT MONMO3      TELAPSE        3.52 TCPU        3.28
 NUMERICALLY INTEGRATED DENSITY     20.0000027751
 TTTTTTTTTTTTTTTTTTTTTTTTTTTTTT NUMDFT      TELAPSE        4.37 TCPU        4.14
 CYC   1 ETOT(AU) -1.512666280861E+02 DETOT  1.27E+00 tst  0.00E+00 PX  1.00E+00
 TTTTTTTTTTTTTTTTTTTTTTTTTTTTTT DIIS        TELAPSE        4.38 TCPU        4.14
 DIIS TEST: 0.17979E+01 AT SCF   CYCLE   1 - MIX   30 %
 TTTTTTTTTTTTTTTTTTTTTTTTTTTTTT FDIK        TELAPSE        4.42 TCPU        4.18
 POSSIBLY CONDUCTING STATE - EFERMI(AU)  3.1894225E-01 (RES. CHARGE  1.61E-12;IT. 14)
 TTTTTTTTTTTTTTTTTTTTTTTTTTTTTT PDIG        TELAPSE        4.43 TCPU        4.19
 CHARGE NORMALIZATION FACTOR   1.00000000
 TOTAL ATOMIC CHARGES:
   0.4458543   9.9987897   0.4924132   0.9136825   4.1843140   3.9649464
 TTTTTTTTTTTTTTTTTTTTTTTTTTTTTT MOQGAD      TELAPSE        4.43 TCPU        4.19
 TTTTTTTTTTTTTTTTTTTTTTTTTTTTTT SHELLXN     TELAPSE        5.00 TCPU        4.76
 TTTTTTTTTTTTTTTTTTTTTTTTTTTTTT MONMO3      TELAPSE        5.40 TCPU        5.16
 NUMERICALLY INTEGRATED DENSITY     19.9999999883
 TTTTTTTTTTTTTTTTTTTTTTTTTTTTTT NUMDFT      TELAPSE        6.29 TCPU        6.05
 CYC   2 ETOT(AU) -4.561636167259E+01 DETOT  1.06E+02 tst  3.86E-02 PX  6.40E+00
 TTTTTTTTTTTTTTTTTTTTTTTTTTTTTT DIIS        TELAPSE        6.29 TCPU        6.05
 DIIS TEST: 0.67513E+02 AT SCF   CYCLE   2 - DIIS ACTIVE - HISTORY:     2 CYCLES
 TTTTTTTTTTTTTTTTTTTTTTTTTTTTTT FDIK        TELAPSE        6.32 TCPU        6.08
 POSSIBLY CONDUCTING STATE - EFERMI(AU)  2.6178066E-01 (RES. CHARGE  7.50E-06;IT. 35)
 TTTTTTTTTTTTTTTTTTTTTTTTTTTTTT PDIG        TELAPSE        6.33 TCPU        6.10
 CHARGE NORMALIZATION FACTOR   0.99999925
 TOTAL ATOMIC CHARGES:
   0.8485746   2.4198659   0.7614639   1.0066975   6.7848667   8.1785315
 TTTTTTTTTTTTTTTTTTTTTTTTTTTTTT MOQGAD      TELAPSE        6.34 TCPU        6.10
 TTTTTTTTTTTTTTTTTTTTTTTTTTTTTT SHELLXN     TELAPSE        6.96 TCPU        6.70
 TTTTTTTTTTTTTTTTTTTTTTTTTTTTTT MONMO3      TELAPSE        7.20 TCPU        6.94
 NUMERICALLY INTEGRATED DENSITY     20.0000013266
 TTTTTTTTTTTTTTTTTTTTTTTTTTTTTT NUMDFT      TELAPSE        8.14 TCPU        7.89
 CYC   3 ETOT(AU) -1.489177087821E+02 DETOT -1.03E+02 tst  3.31E-02 PX  4.40E+00
 TTTTTTTTTTTTTTTTTTTTTTTTTTTTTT DIIS        TELAPSE        8.15 TCPU        7.89
 DIIS TEST: 0.78387E+01 AT SCF   CYCLE   3 - DIIS ACTIVE - HISTORY:     3 CYCLES
 TTTTTTTTTTTTTTTTTTTTTTTTTTTTTT FDIK        TELAPSE        8.18 TCPU        7.93
 INSULATING STATE
 TOP OF VALENCE BANDS -    BAND     10; K   39; EIG -1.0302194E-01 AU
 TOP OF VALENCE BANDS -    BAND     10; K    1; EIG -1.0504902E-01 AU
 BOTTOM OF VIRTUAL BANDS - BAND     11; K    5; EIG -6.2226839E-02 AU
 INDIRECT ENERGY BAND GAP:   1.1101 eV
 BOTTOM OF VIRTUAL BANDS - BAND     11; K    1; EIG -6.1051711E-02 AU
 TTTTTTTTTTTTTTTTTTTTTTTTTTTTTT PDIG        TELAPSE        8.19 TCPU        7.93
 CHARGE NORMALIZATION FACTOR   1.00000000
 TOTAL ATOMIC CHARGES:
   0.6511443   1.9998842   0.7175648   0.6410892   9.0621404   6.9281771
 TTTTTTTTTTTTTTTTTTTTTTTTTTTTTT MOQGAD      TELAPSE        8.19 TCPU        7.93
 TTTTTTTTTTTTTTTTTTTTTTTTTTTTTT SHELLXN     TELAPSE        8.90 TCPU        8.65
 TTTTTTTTTTTTTTTTTTTTTTTTTTTTTT MONMO3      TELAPSE        9.06 TCPU        8.81
 NUMERICALLY INTEGRATED DENSITY     20.0000029202
 TTTTTTTTTTTTTTTTTTTTTTTTTTTTTT NUMDFT      TELAPSE       10.12 TCPU        9.87
 CYC   4 ETOT(AU) -1.501974352460E+02 DETOT -1.28E+00 tst  1.07E+00 PX  9.35E-01
 TTTTTTTTTTTTTTTTTTTTTTTTTTTTTT DIIS        TELAPSE       10.13 TCPU        9.87
 DIIS TEST: 0.79381E+01 AT SCF   CYCLE   4 - DIIS ACTIVE - HISTORY:     4 CYCLES
 TTTTTTTTTTTTTTTTTTTTTTTTTTTTTT FDIK        TELAPSE       10.18 TCPU        9.93
 POSSIBLY CONDUCTING STATE - EFERMI(AU) -1.4728405E-01 (RES. CHARGE  2.13E-10;IT. 14)
 TTTTTTTTTTTTTTTTTTTTTTTTTTTTTT PDIG        TELAPSE       10.19 TCPU        9.93
 CHARGE NORMALIZATION FACTOR   1.00000000
 TOTAL ATOMIC CHARGES:
   0.6415563   1.4030179   0.6847714   0.6397900   8.2284694   8.4023950
 TTTTTTTTTTTTTTTTTTTTTTTTTTTTTT MOQGAD      TELAPSE       10.19 TCPU        9.94
 TTTTTTTTTTTTTTTTTTTTTTTTTTTTTT SHELLXN     TELAPSE       10.77 TCPU       10.52
 TTTTTTTTTTTTTTTTTTTTTTTTTTTTTT MONMO3      TELAPSE       11.36 TCPU       11.11
 NUMERICALLY INTEGRATED DENSITY     20.0000020678
 TTTTTTTTTTTTTTTTTTTTTTTTTTTTTT NUMDFT      TELAPSE       12.14 TCPU       11.89
 CYC   5 ETOT(AU) -1.523386640763E+02 DETOT -2.14E+00 tst  9.71E-02 PX  3.94E-01
 TTTTTTTTTTTTTTTTTTTTTTTTTTTTTT DIIS        TELAPSE       12.15 TCPU       11.89
 DIIS TEST: 0.24070E+00 AT SCF   CYCLE   5 - DIIS ACTIVE - HISTORY:     5 CYCLES
 TTTTTTTTTTTTTTTTTTTTTTTTTTTTTT FDIK        TELAPSE       12.19 TCPU       11.93
 INSULATING STATE
 TOP OF VALENCE BANDS -    BAND     10; K   42; EIG -2.7495139E-01 AU
 TOP OF VALENCE BANDS -    BAND     10; K    1; EIG -2.9198010E-01 AU
 BOTTOM OF VIRTUAL BANDS - BAND     11; K   21; EIG -1.7386404E-01 AU
 INDIRECT ENERGY BAND GAP:   2.7507 eV
 BOTTOM OF VIRTUAL BANDS - BAND     11; K    1; EIG -1.7386404E-01 AU
 TTTTTTTTTTTTTTTTTTTTTTTTTTTTTT PDIG        TELAPSE       12.19 TCPU       11.94
 CHARGE NORMALIZATION FACTOR   1.00000000
 TOTAL ATOMIC CHARGES:
   0.6317468   0.0000518   0.6793536   0.6156666   9.2089619   8.8642194
 TTTTTTTTTTTTTTTTTTTTTTTTTTTTTT MOQGAD      TELAPSE       12.20 TCPU       11.94
 TTTTTTTTTTTTTTTTTTTTTTTTTTTTTT SHELLXN     TELAPSE       12.78 TCPU       12.53
 TTTTTTTTTTTTTTTTTTTTTTTTTTTTTT MONMO3      TELAPSE       12.96 TCPU       12.70
 NUMERICALLY INTEGRATED DENSITY     20.0000026365
 TTTTTTTTTTTTTTTTTTTTTTTTTTTTTT NUMDFT      TELAPSE       13.86 TCPU       13.61
 CYC   6 ETOT(AU) -1.514117548081E+02 DETOT  9.27E-01 tst  8.17E-04 PX  9.64E-01
 TTTTTTTTTTTTTTTTTTTTTTTTTTTTTT DIIS        TELAPSE       13.87 TCPU       13.61
 DIIS TEST: 0.75743E+00 AT SCF   CYCLE   6 - DIIS ACTIVE - HISTORY:     6 CYCLES
 TTTTTTTTTTTTTTTTTTTTTTTTTTTTTT FDIK        TELAPSE       13.91 TCPU       13.65
 POSSIBLY CONDUCTING STATE - EFERMI(AU) -2.1785209E-01 (RES. CHARGE  6.67E-11;IT. 14)
 TTTTTTTTTTTTTTTTTTTTTTTTTTTTTT PDIG        TELAPSE       13.92 TCPU       13.66
 CHARGE NORMALIZATION FACTOR   1.00000000
 TOTAL ATOMIC CHARGES:
   0.6260242   0.3357590   0.6669872   0.6324475   9.0136185   8.7251636
 TTTTTTTTTTTTTTTTTTTTTTTTTTTTTT MOQGAD      TELAPSE       13.92 TCPU       13.66
 TTTTTTTTTTTTTTTTTTTTTTTTTTTTTT SHELLXN     TELAPSE       14.56 TCPU       14.30
 TTTTTTTTTTTTTTTTTTTTTTTTTTTTTT MONMO3      TELAPSE       14.77 TCPU       14.51
 NUMERICALLY INTEGRATED DENSITY     20.0000025919
 TTTTTTTTTTTTTTTTTTTTTTTTTTTTTT NUMDFT      TELAPSE       15.94 TCPU       15.68
 CYC   7 ETOT(AU) -1.520541494375E+02 DETOT -6.42E-01 tst  5.31E-05 PX  2.05E-01
 TTTTTTTTTTTTTTTTTTTTTTTTTTTTTT DIIS        TELAPSE       15.94 TCPU       15.69
 DIIS TEST: 0.32687E+00 AT SCF   CYCLE   7 - DIIS ACTIVE - HISTORY:     7 CYCLES
 TTTTTTTTTTTTTTTTTTTTTTTTTTTTTT FDIK        TELAPSE       15.99 TCPU       15.73
 POSSIBLY CONDUCTING STATE - EFERMI(AU) -2.1505197E-01 (RES. CHARGE  2.30E-11;IT. 14)
 TTTTTTTTTTTTTTTTTTTTTTTTTTTTTT PDIG        TELAPSE       15.99 TCPU       15.73
 CHARGE NORMALIZATION FACTOR   1.00000000
 TOTAL ATOMIC CHARGES:
   0.6224559   1.2196333   0.6627482   0.6282199   8.4900436   8.3768992
 TTTTTTTTTTTTTTTTTTTTTTTTTTTTTT MOQGAD      TELAPSE       15.99 TCPU       15.73
 TTTTTTTTTTTTTTTTTTTTTTTTTTTTTT SHELLXN     TELAPSE       16.61 TCPU       16.35
 TTTTTTTTTTTTTTTTTTTTTTTTTTTTTT MONMO3      TELAPSE       16.76 TCPU       16.51
 NUMERICALLY INTEGRATED DENSITY     20.0000022777
 TTTTTTTTTTTTTTTTTTTTTTTTTTTTTT NUMDFT      TELAPSE       17.62 TCPU       17.36
 CYC   8 ETOT(AU) -1.524798933108E+02 DETOT -4.26E-01 tst  2.01E-04 PX  4.96E-01
 TTTTTTTTTTTTTTTTTTTTTTTTTTTTTT DIIS        TELAPSE       17.62 TCPU       17.36
 DIIS TEST: 0.77094E-01 AT SCF   CYCLE   8 - DIIS ACTIVE - HISTORY:     8 CYCLES
 TTTTTTTTTTTTTTTTTTTTTTTTTTTTTT FDIK        TELAPSE       17.67 TCPU       17.41
 POSSIBLY CONDUCTING STATE - EFERMI(AU) -2.1274944E-01 (RES. CHARGE  8.11E-12;IT. 12)
 TTTTTTTTTTTTTTTTTTTTTTTTTTTTTT PDIG        TELAPSE       17.68 TCPU       17.42
 CHARGE NORMALIZATION FACTOR   1.00000000
 TOTAL ATOMIC CHARGES:
   0.6214662   1.2206836   0.6633937   0.6285987   8.3913917   8.4744662
 TTTTTTTTTTTTTTTTTTTTTTTTTTTTTT MOQGAD      TELAPSE       17.68 TCPU       17.42
 TTTTTTTTTTTTTTTTTTTTTTTTTTTTTT SHELLXN     TELAPSE       18.25 TCPU       17.99
 TTTTTTTTTTTTTTTTTTTTTTTTTTTTTT MONMO3      TELAPSE       18.46 TCPU       18.20
 NUMERICALLY INTEGRATED DENSITY     20.0000021959
 TTTTTTTTTTTTTTTTTTTTTTTTTTTTTT NUMDFT      TELAPSE       19.36 TCPU       19.10
 CYC   9 ETOT(AU) -1.524856669646E+02 DETOT -5.77E-03 tst  6.20E-04 PX  1.51E-02
 TTTTTTTTTTTTTTTTTTTTTTTTTTTTTT DIIS        TELAPSE       19.37 TCPU       19.11
 DIIS TEST: 0.55474E-01 AT SCF   CYCLE   9 - DIIS ACTIVE - HISTORY:     9 CYCLES
 TTTTTTTTTTTTTTTTTTTTTTTTTTTTTT FDIK        TELAPSE       19.40 TCPU       19.14
 POSSIBLY CONDUCTING STATE - EFERMI(AU) -2.1014465E-01 (RES. CHARGE  1.71E-06;IT. 44)
 TTTTTTTTTTTTTTTTTTTTTTTTTTTTTT PDIG        TELAPSE       19.41 TCPU       19.15
 CHARGE NORMALIZATION FACTOR   1.00000017
 TOTAL ATOMIC CHARGES:
   0.6179673   1.8593407   0.6605317   0.6195920   8.0211753   8.2213931
 TTTTTTTTTTTTTTTTTTTTTTTTTTTTTT MOQGAD      TELAPSE       19.41 TCPU       19.15
 TTTTTTTTTTTTTTTTTTTTTTTTTTTTTT SHELLXN     TELAPSE       20.09 TCPU       19.83
 TTTTTTTTTTTTTTTTTTTTTTTTTTTTTT MONMO3      TELAPSE       20.26 TCPU       19.99
 NUMERICALLY INTEGRATED DENSITY     20.0000018889
 TTTTTTTTTTTTTTTTTTTTTTTTTTTTTT NUMDFT      TELAPSE       21.16 TCPU       20.90
 CYC  10 ETOT(AU) -1.516476217286E+02 DETOT  8.38E-01 tst  6.06E-05 PX  3.36E-01
 TTTTTTTTTTTTTTTTTTTTTTTTTTTTTT DIIS        TELAPSE       21.16 TCPU       20.90
 DIIS TEST: 0.64111E+00 AT SCF   CYCLE  10 - DIIS ACTIVE - HISTORY:    10 CYCLES
 TTTTTTTTTTTTTTTTTTTTTTTTTTTTTT FDIK        TELAPSE       21.20 TCPU       20.94
 POSSIBLY CONDUCTING STATE - EFERMI(AU) -2.1137341E-01 (RES. CHARGE  6.51E-10;IT. 12)
 TTTTTTTTTTTTTTTTTTTTTTTTTTTTTT PDIG        TELAPSE       21.20 TCPU       20.94
 CHARGE NORMALIZATION FACTOR   1.00000000
 TOTAL ATOMIC CHARGES:
   0.6212590   1.2712415   0.6646943   0.6262473   8.4092698   8.4072880
 TTTTTTTTTTTTTTTTTTTTTTTTTTTTTT MOQGAD      TELAPSE       21.21 TCPU       20.94
 TTTTTTTTTTTTTTTTTTTTTTTTTTTTTT SHELLXN     TELAPSE       21.91 TCPU       21.65
 TTTTTTTTTTTTTTTTTTTTTTTTTTTTTT MONMO3      TELAPSE       22.02 TCPU       21.76
 NUMERICALLY INTEGRATED DENSITY     20.0000022111
 TTTTTTTTTTTTTTTTTTTTTTTTTTTTTT NUMDFT      TELAPSE       22.83 TCPU       22.57
 CYC  11 ETOT(AU) -1.524540658034E+02 DETOT -8.06E-01 tst  8.00E-05 PX  3.01E-01
 TTTTTTTTTTTTTTTTTTTTTTTTTTTTTT DIIS        TELAPSE       22.84 TCPU       22.58
 DIIS TEST: 0.77301E-01 AT SCF   CYCLE  11 - DIIS ACTIVE - HISTORY:    11 CYCLES
 TTTTTTTTTTTTTTTTTTTTTTTTTTTTTT FDIK        TELAPSE       22.87 TCPU       22.61
 POSSIBLY CONDUCTING STATE - EFERMI(AU) -2.1637060E-01 (RES. CHARGE  1.50E-10;IT. 14)
 TTTTTTTTTTTTTTTTTTTTTTTTTTTTTT PDIG        TELAPSE       22.87 TCPU       22.61
 CHARGE NORMALIZATION FACTOR   1.00000000
 TOTAL ATOMIC CHARGES:
   0.6214906   1.2099615   0.6648761   0.6250272   8.4459343   8.4327102
 TTTTTTTTTTTTTTTTTTTTTTTTTTTTTT MOQGAD      TELAPSE       22.88 TCPU       22.61
 TTTTTTTTTTTTTTTTTTTTTTTTTTTTTT SHELLXN     TELAPSE       23.45 TCPU       23.18
 TTTTTTTTTTTTTTTTTTTTTTTTTTTTTT MONMO3      TELAPSE       23.65 TCPU       23.38
 NUMERICALLY INTEGRATED DENSITY     20.0000022387
 TTTTTTTTTTTTTTTTTTTTTTTTTTTTTT NUMDFT      TELAPSE       24.64 TCPU       24.38
 CYC  12 ETOT(AU) -1.524911899072E+02 DETOT -3.71E-02 tst  8.14E-06 PX  4.45E-02
 TTTTTTTTTTTTTTTTTTTTTTTTTTTTTT DIIS        TELAPSE       24.65 TCPU       24.38
 DIIS TEST: 0.47510E-01 AT SCF   CYCLE  12 - DIIS ACTIVE - HISTORY:    12 CYCLES
 TTTTTTTTTTTTTTTTTTTTTTTTTTTTTT FDIK        TELAPSE       24.69 TCPU       24.43
 POSSIBLY CONDUCTING STATE - EFERMI(AU) -2.2479157E-01 (RES. CHARGE  1.15E-12;IT. 12)
 TTTTTTTTTTTTTTTTTTTTTTTTTTTTTT PDIG        TELAPSE       24.70 TCPU       24.44
 CHARGE NORMALIZATION FACTOR   1.00000000
 TOTAL ATOMIC CHARGES:
   0.6210554   1.0844771   0.6656343   0.6235914   8.5191271   8.4861147
 TTTTTTTTTTTTTTTTTTTTTTTTTTTTTT MOQGAD      TELAPSE       24.70 TCPU       24.44
 TTTTTTTTTTTTTTTTTTTTTTTTTTTTTT SHELLXN     TELAPSE       25.38 TCPU       25.12
 TTTTTTTTTTTTTTTTTTTTTTTTTTTTTT MONMO3      TELAPSE       25.62 TCPU       25.36
 NUMERICALLY INTEGRATED DENSITY     20.0000022916
 TTTTTTTTTTTTTTTTTTTTTTTTTTTTTT NUMDFT      TELAPSE       26.45 TCPU       26.18
 CYC  13 ETOT(AU) -1.525386513926E+02 DETOT -4.75E-02 tst  2.35E-05 PX  8.59E-02
 TTTTTTTTTTTTTTTTTTTTTTTTTTTTTT DIIS        TELAPSE       26.45 TCPU       26.19
 DIIS TEST: 0.92819E-02 AT SCF   CYCLE  13 - DIIS ACTIVE - HISTORY:    13 CYCLES
 TTTTTTTTTTTTTTTTTTTTTTTTTTTTTT FDIK        TELAPSE       26.48 TCPU       26.22
 POSSIBLY CONDUCTING STATE - EFERMI(AU) -2.3137200E-01 (RES. CHARGE  1.01E-11;IT. 14)
 TTTTTTTTTTTTTTTTTTTTTTTTTTTTTT PDIG        TELAPSE       26.49 TCPU       26.23
 CHARGE NORMALIZATION FACTOR   1.00000000
 TOTAL ATOMIC CHARGES:
   0.6212890   0.9858964   0.6661038   0.6215308   8.5723504   8.5328298
 TTTTTTTTTTTTTTTTTTTTTTTTTTTTTT MOQGAD      TELAPSE       26.49 TCPU       26.23
 TTTTTTTTTTTTTTTTTTTTTTTTTTTTTT SHELLXN     TELAPSE       27.15 TCPU       26.88
 TTTTTTTTTTTTTTTTTTTTTTTTTTTTTT MONMO3      TELAPSE       27.36 TCPU       27.09
 NUMERICALLY INTEGRATED DENSITY     20.0000023203
 TTTTTTTTTTTTTTTTTTTTTTTTTTTTTT NUMDFT      TELAPSE       28.22 TCPU       27.95
 CYC  14 ETOT(AU) -1.525493905623E+02 DETOT -1.07E-02 tst  2.78E-05 PX  6.77E-02
 TTTTTTTTTTTTTTTTTTTTTTTTTTTTTT DIIS        TELAPSE       28.22 TCPU       27.96
 DIIS TEST: 0.36386E-04 AT SCF   CYCLE  14 - DIIS ACTIVE - HISTORY:    14 CYCLES
 TTTTTTTTTTTTTTTTTTTTTTTTTTTTTT FDIK        TELAPSE       28.26 TCPU       27.99
 POSSIBLY CONDUCTING STATE - EFERMI(AU) -2.3270628E-01 (RES. CHARGE  5.56E-13;IT. 12)
 TTTTTTTTTTTTTTTTTTTTTTTTTTTTTT PDIG        TELAPSE       28.26 TCPU       28.00
 CHARGE NORMALIZATION FACTOR   1.00000000
 TOTAL ATOMIC CHARGES:
   0.6209296   0.9806124   0.6661352   0.6210996   8.5742919   8.5369312
 TTTTTTTTTTTTTTTTTTTTTTTTTTTTTT MOQGAD      TELAPSE       28.27 TCPU       28.00
 TTTTTTTTTTTTTTTTTTTTTTTTTTTTTT SHELLXN     TELAPSE       28.85 TCPU       28.59
 TTTTTTTTTTTTTTTTTTTTTTTTTTTTTT MONMO3      TELAPSE       29.07 TCPU       28.80
 NUMERICALLY INTEGRATED DENSITY     20.0000023209
 TTTTTTTTTTTTTTTTTTTTTTTTTTTTTT NUMDFT      TELAPSE       30.02 TCPU       29.75
 CYC  15 ETOT(AU) -1.525492996274E+02 DETOT  9.09E-05 tst  1.70E-06 PX  5.81E-03
 TTTTTTTTTTTTTTTTTTTTTTTTTTTTTT DIIS        TELAPSE       30.02 TCPU       29.76
 DIIS TEST: 0.99833E-04 AT SCF   CYCLE  15 - DIIS ACTIVE - HISTORY:    15 CYCLES
 TTTTTTTTTTTTTTTTTTTTTTTTTTTTTT FDIK        TELAPSE       30.06 TCPU       29.80
 POSSIBLY CONDUCTING STATE - EFERMI(AU) -2.3253132E-01 (RES. CHARGE  3.83E-12;IT. 10)
 TTTTTTTTTTTTTTTTTTTTTTTTTTTTTT PDIG        TELAPSE       30.07 TCPU       29.80
 CHARGE NORMALIZATION FACTOR   1.00000000
 TOTAL ATOMIC CHARGES:
   0.6209728   0.9872160   0.6660440   0.6211340   8.5701673   8.5344658
 TTTTTTTTTTTTTTTTTTTTTTTTTTTTTT MOQGAD      TELAPSE       30.07 TCPU       29.80
 TTTTTTTTTTTTTTTTTTTTTTTTTTTTTT SHELLXN     TELAPSE       30.65 TCPU       30.38
 TTTTTTTTTTTTTTTTTTTTTTTTTTTTTT MONMO3      TELAPSE       30.84 TCPU       30.57
 NUMERICALLY INTEGRATED DENSITY     20.0000023180
 TTTTTTTTTTTTTTTTTTTTTTTTTTTTTT NUMDFT      TELAPSE       31.77 TCPU       31.50
 CYC  16 ETOT(AU) -1.525494105929E+02 DETOT -1.11E-04 tst  1.31E-08 PX  3.60E-03
 TTTTTTTTTTTTTTTTTTTTTTTTTTTTTT DIIS        TELAPSE       31.77 TCPU       31.51
 DIIS TEST: 0.13867E-04 AT SCF   CYCLE  16 - DIIS ACTIVE - HISTORY:    16 CYCLES
 TTTTTTTTTTTTTTTTTTTTTTTTTTTTTT FDIK        TELAPSE       31.81 TCPU       31.55
 POSSIBLY CONDUCTING STATE - EFERMI(AU) -2.3256824E-01 (RES. CHARGE  1.18E-12;IT.  8)
 TTTTTTTTTTTTTTTTTTTTTTTTTTTTTT PDIG        TELAPSE       31.82 TCPU       31.55
 CHARGE NORMALIZATION FACTOR   1.00000000
 TOTAL ATOMIC CHARGES:
   0.6209399   0.9899781   0.6660377   0.6211048   8.5683882   8.5335513
 TTTTTTTTTTTTTTTTTTTTTTTTTTTTTT MOQGAD      TELAPSE       31.82 TCPU       31.55
 TTTTTTTTTTTTTTTTTTTTTTTTTTTTTT SHELLXN     TELAPSE       32.39 TCPU       32.12
 TTTTTTTTTTTTTTTTTTTTTTTTTTTTTT MONMO3      TELAPSE       32.66 TCPU       32.39
 NUMERICALLY INTEGRATED DENSITY     20.0000023170
 TTTTTTTTTTTTTTTTTTTTTTTTTTTTTT NUMDFT      TELAPSE       33.61 TCPU       33.34
 CYC  17 ETOT(AU) -1.525494263015E+02 DETOT -1.57E-05 tst  5.89E-09 PX  1.33E-03
 TTTTTTTTTTTTTTTTTTTTTTTTTTTTTT DIIS        TELAPSE       33.61 TCPU       33.34
 DIIS TEST: 0.14214E-05 AT SCF   CYCLE  17 - DIIS ACTIVE - HISTORY:    17 CYCLES
 TTTTTTTTTTTTTTTTTTTTTTTTTTTTTT FDIK        TELAPSE       33.64 TCPU       33.37
 POSSIBLY CONDUCTING STATE - EFERMI(AU) -2.3257397E-01 (RES. CHARGE  3.95E-11;IT.  6)
 TTTTTTTTTTTTTTTTTTTTTTTTTTTTTT PDIG        TELAPSE       33.65 TCPU       33.38
 CHARGE NORMALIZATION FACTOR   1.00000000
 TOTAL ATOMIC CHARGES:
   0.6209390   0.9910000   0.6660222   0.6210979   8.5678214   8.5331196
 TTTTTTTTTTTTTTTTTTTTTTTTTTTTTT MOQGAD      TELAPSE       33.65 TCPU       33.38
 TTTTTTTTTTTTTTTTTTTTTTTTTTTTTT SHELLXN     TELAPSE       34.30 TCPU       34.03
 TTTTTTTTTTTTTTTTTTTTTTTTTTTTTT MONMO3      TELAPSE       34.47 TCPU       34.20
 NUMERICALLY INTEGRATED DENSITY     20.0000023166
 TTTTTTTTTTTTTTTTTTTTTTTTTTTTTT NUMDFT      TELAPSE       35.39 TCPU       35.12
 CYC  18 ETOT(AU) -1.525494276184E+02 DETOT -1.32E-06 tst  5.56E-10 PX  5.14E-04
 TTTTTTTTTTTTTTTTTTTTTTTTTTTTTT DIIS        TELAPSE       35.39 TCPU       35.12
 DIIS TEST: 0.59428E-07 AT SCF   CYCLE  18 - DIIS ACTIVE - HISTORY:    18 CYCLES
 TTTTTTTTTTTTTTTTTTTTTTTTTTTTTT FDIK        TELAPSE       35.43 TCPU       35.16
 POSSIBLY CONDUCTING STATE - EFERMI(AU) -2.3258708E-01 (RES. CHARGE  4.68E-10;IT.  6)
 TTTTTTTTTTTTTTTTTTTTTTTTTTTTTT PDIG        TELAPSE       35.43 TCPU       35.16
 CHARGE NORMALIZATION FACTOR   1.00000000
 TOTAL ATOMIC CHARGES:
   0.6209362   0.9911613   0.6660198   0.6210920   8.5677449   8.5330459
 TTTTTTTTTTTTTTTTTTTTTTTTTTTTTT MOQGAD      TELAPSE       35.44 TCPU       35.16
 TTTTTTTTTTTTTTTTTTTTTTTTTTTTTT SHELLXN     TELAPSE       36.00 TCPU       35.73
 TTTTTTTTTTTTTTTTTTTTTTTTTTTTTT MONMO3      TELAPSE       36.21 TCPU       35.94
 NUMERICALLY INTEGRATED DENSITY     20.0000023165
 TTTTTTTTTTTTTTTTTTTTTTTTTTTTTT NUMDFT      TELAPSE       36.97 TCPU       36.70
 CYC  19 ETOT(AU) -1.525494276034E+02 DETOT  1.49E-08 tst  2.00E-10 PX  5.56E-05
 TTTTTTTTTTTTTTTTTTTTTTTTTTTTTT DIIS        TELAPSE       36.98 TCPU       36.71
 DIIS TEST: 0.91648E-08 AT SCF   CYCLE  19 - DIIS ACTIVE - HISTORY:    18 CYCLES
 TTTTTTTTTTTTTTTTTTTTTTTTTTTTTT FDIK        TELAPSE       37.03 TCPU       36.75
 POSSIBLY CONDUCTING STATE - EFERMI(AU) -2.3259002E-01 (RES. CHARGE  5.36E-12;IT.  6)
 TTTTTTTTTTTTTTTTTTTTTTTTTTTTTT PDIG        TELAPSE       37.03 TCPU       36.76
 CHARGE NORMALIZATION FACTOR   1.00000000
 TOTAL ATOMIC CHARGES:
   0.6209353   0.9912280   0.6660191   0.6210907   8.5677031   8.5330238
 TTTTTTTTTTTTTTTTTTTTTTTTTTTTTT MOQGAD      TELAPSE       37.04 TCPU       36.76
 TTTTTTTTTTTTTTTTTTTTTTTTTTTTTT SHELLXN     TELAPSE       37.60 TCPU       37.33
 +++ ENERGIES IN A.U. +++
 ::: EXT EL-POLE                                   1.7647170149430E+01
 ::: EXT EL-SPHEROPOLE                             5.2305536085452E-01
 ::: BIELET ZONE E-E                               1.8459973499104E+02
 ::: TOTAL E-E                                     2.0276996050132E+02
 ::: TOTAL E-N + N-E                              -6.1599752135081E+02
 ::: TOTAL N-N                                     1.2700576180830E+02
 ::: KINETIC ENERGY                                1.5195863186976E+02
 ::: PSEUDO TOTAL   ENERGY                        -1.3426316717143E+02
 ::: VIRIAL COEFFICIENT                            1.0618243081331E+00
 TTTTTTTTTTTTTTTTTTTTTTTTTTTTTT MONMO3      TELAPSE       37.78 TCPU       37.51
 NUMERICALLY INTEGRATED DENSITY     20.0000023165
 TTTTTTTTTTTTTTTTTTTTTTTTTTTTTT NUMDFT      TELAPSE       38.84 TCPU       38.56
 CYC  20 ETOT(AU) -1.525494275736E+02 DETOT  2.99E-08 tst  1.63E-11 PX  5.56E-05

 == SCF ENDED - CONVERGENCE ON ENERGY      E(AU) -1.5254942757355E+02 CYCLES  20


 ENERGY EXPRESSION=HARTREE+FOCK EXCH*0.00000+(PBE        EXCH)*1.00000+PBE        CORR


 TOTAL ENERGY(DFT)(AU)( 20) -1.5254942757355E+02 DE 3.0E-08 tester 1.6E-11
 TTTTTTTTTTTTTTTTTTTTTTTTTTTTTT EDFT        TELAPSE       38.84 TCPU       38.56

 NEIGHBORS OF THE NON-EQUIVALENT ATOMS

 N = NUMBER OF NEIGHBORS AT DISTANCE R
    ATOM  N     R/ANG      R/AU   NEIGHBORS (ATOM LABELS AND CELL INDICES)
   1 H    1     0.9882     1.8675    6 O    0-1 0
   1 H    1     1.6103     3.0431    3 H    0-1 0
   1 H    1     1.8980     3.5868    6 O    1-1 0
   1 H    1     2.3854     4.5077    3 H    1-1 0
   1 H    1     2.4112     4.5564    5 O    0 0 0
   1 H    1     2.6394     4.9877    4 H    1 0 0

   2 H    2     2.8010     5.2931    2 H   -1 0 0    2 H    1 0 0
   2 H    2     3.4034     6.4314    2 H    0-1 0    2 H    0 1 0
   2 H    2     4.3945     8.3043    2 H   -1-1 0    2 H    1 1 0
   2 H    1     4.3960     8.3071    4 H    0 0 0
   2 H    2     4.4211     8.3546    2 H   -1 1 0    2 H    1-1 0
   2 H    1     4.5799     8.6548    5 O    0 0 0

   3 H    1     1.0474     1.9793    6 O    0 0 0
   3 H    1     1.5190     2.8705    5 O    0 0 0
   3 H    1     1.6103     3.0431    1 H    0 1 0
   3 H    1     2.0088     3.7962    4 H    0 0 0
   3 H    1     2.3854     4.5077    1 H   -1 1 0
   3 H    1     2.4532     4.6359    5 O    0 1 0

   4 H    1     0.9927     1.8760    5 O    0 0 0
   4 H    1     1.8883     3.5683    5 O   -1 0 0
   4 H    1     2.0088     3.7962    3 H    0 0 0
   4 H    1     2.3985     4.5325    6 O    0-1 0
   4 H    1     2.5206     4.7633    3 H    0-1 0
   4 H    1     2.6394     4.9877    1 H   -1 0 0

   5 O    1     0.9927     1.8760    4 H    0 0 0
   5 O    1     1.5190     2.8705    3 H    0 0 0
   5 O    1     1.8883     3.5683    4 H    1 0 0
   5 O    1     2.2170     4.1895    6 O    0-1 0
   5 O    1     2.4112     4.5564    1 H    0 0 0
   5 O    1     2.4532     4.6359    3 H    0-1 0

   6 O    1     0.9882     1.8675    1 H    0 1 0
   6 O    1     1.0474     1.9793    3 H    0 0 0
   6 O    1     1.8980     3.5868    1 H   -1 1 0
   6 O    1     2.2170     4.1895    5 O    0 1 0
   6 O    1     2.3985     4.5325    4 H    0 1 0
   6 O    1     2.5664     4.8498    5 O    0 0 0

 TTTTTTTTTTTTTTTTTTTTTTTTTTTTTT AFTER FIRST TELAPSE       38.85 TCPU       38.56
 MMMMMMMMMMMMMMMMMMMMMMMMMMMMMMMMMMMMMMMMMMMMMMMMMMMMMMMMMMMMMMMMMMMMMMMMMMMMMMM
     ALPHA+BETA ELECTRONS
 MULLIKEN POPULATION ANALYSIS - NO. OF ELECTRONS   20.000000

  ATOM    Z CHARGE  A.O. POPULATION

   1 H    1  0.621  0.236  0.125  0.191  0.033  0.018  0.018
   2 H    1  0.991  0.160  0.090  0.740  0.001  0.000  0.000
   3 H    1  0.666  0.208  0.144  0.191  0.013  0.063  0.048
   4 H    1  0.621  0.236  0.124  0.189  0.032  0.021  0.019
   5 O    8  8.568  0.793  1.178  0.747  1.105  0.614  0.626  0.589  0.587
                    0.572  0.541  0.386  0.413  0.385  0.004  0.003  0.007
                    0.013  0.003
   6 O    8  8.533  0.793  1.179  0.733  1.057  0.621  0.624  0.632  0.603
                    0.582  0.584  0.355  0.362  0.375  0.005  0.003  0.010
                    0.014  0.002

  ATOM    Z CHARGE  SHELL POPULATION

   1 H    1  0.621  0.236  0.125  0.191  0.068
   2 H    1  0.991  0.160  0.090  0.740  0.001
   3 H    1  0.666  0.208  0.144  0.191  0.123
   4 H    1  0.621  0.236  0.124  0.189  0.072
   5 O    8  8.568  0.793  1.178  0.747  1.105  1.830  1.700  1.185  0.029
   6 O    8  8.533  0.793  1.179  0.733  1.057  1.877  1.769  1.092  0.034

 OVERLAP POPULATION CONDENSED TO ATOMS FOR FIRST   6 NEIGHBORS

 ATOM A   1 H    ATOM B     CELL      R(AB)/AU R(AB)/ANG    OVPOP(AB)
                  6 O    (  0 -1  0)     1.867     0.988     0.318
                  3 H    (  0 -1  0)     3.043     1.610    -0.019
                  6 O    (  1 -1  0)     3.587     1.898     0.037
                  3 H    (  1 -1  0)     4.508     2.385     0.001
                  5 O    (  0  0  0)     4.556     2.411     0.003
                  4 H    (  1  0  0)     4.988     2.639     0.000

 ATOM A   2 H    ATOM B     CELL      R(AB)/AU R(AB)/ANG    OVPOP(AB)
                  2 H    ( -1  0  0)     5.293     2.801     0.030
                  2 H    (  0 -1  0)     6.431     3.403     0.002
                  2 H    ( -1 -1  0)     8.304     4.394     0.000
                  4 H    (  0  0  0)     8.307     4.396     0.000
                  2 H    ( -1  1  0)     8.355     4.421     0.000
                  5 O    (  0  0  0)     8.655     4.580     0.000

 ATOM A   3 H    ATOM B     CELL      R(AB)/AU R(AB)/ANG    OVPOP(AB)
                  6 O    (  0  0  0)     1.979     1.047     0.302
                  5 O    (  0  0  0)     2.871     1.519     0.128
                  1 H    (  0  1  0)     3.043     1.610    -0.019
                  4 H    (  0  0  0)     3.796     2.009    -0.004
                  1 H    ( -1  1  0)     4.508     2.385     0.001
                  5 O    (  0  1  0)     4.636     2.453     0.001

 ATOM A   4 H    ATOM B     CELL      R(AB)/AU R(AB)/ANG    OVPOP(AB)
                  5 O    (  0  0  0)     1.876     0.993     0.324
                  5 O    ( -1  0  0)     3.568     1.888     0.038
                  3 H    (  0  0  0)     3.796     2.009    -0.004
                  6 O    (  0 -1  0)     4.533     2.399     0.001
                  3 H    (  0 -1  0)     4.763     2.521    -0.000
                  1 H    ( -1  0  0)     4.988     2.639     0.000

 ATOM A   5 O    ATOM B     CELL      R(AB)/AU R(AB)/ANG    OVPOP(AB)
                  4 H    (  0  0  0)     1.876     0.993     0.324
                  3 H    (  0  0  0)     2.871     1.519     0.128
                  4 H    (  1  0  0)     3.568     1.888     0.038
                  6 O    (  0 -1  0)     4.189     2.217     0.009
                  1 H    (  0  0  0)     4.556     2.411     0.003
                  3 H    (  0 -1  0)     4.636     2.453     0.001

 ATOM A   6 O    ATOM B     CELL      R(AB)/AU R(AB)/ANG    OVPOP(AB)
                  1 H    (  0  1  0)     1.867     0.988     0.318
                  3 H    (  0  0  0)     1.979     1.047     0.302
                  1 H    ( -1  1  0)     3.587     1.898     0.037
                  5 O    (  0  1  0)     4.189     2.217     0.009
                  4 H    (  0  1  0)     4.533     2.399     0.001
                  5 O    (  0  0  0)     4.850     2.566    -0.037
 EIGENVECTORS IN FORTRAN UNIT  8
 TTTTTTTTTTTTTTTTTTTTTTTTTTTTTT END         TELAPSE       38.88 TCPU       38.59
 EEEEEEEEEE TERMINATION  DATE 13 02 2024 TIME 06:27:33.5
NODE    0 CPU TIME =        38.585
NODE    1 CPU TIME =        38.631
NODE    2 CPU TIME =        38.613
NODE    3 CPU TIME =        38.596
NODE    4 CPU TIME =        38.541
NODE    5 CPU TIME =        38.627
NODE    6 CPU TIME =        38.588
NODE    7 CPU TIME =        38.579
    TOTAL CPU TIME =       308.759